ITEM: TIMESTEP
0
ITEM: ATOMS
1 1
ITEM: TIMESTEP
5000
ITEM: ATOMS
1 1
ITEM: TIMESTEP
10000
ITEM: ATOMS
1 1