ITEM: TIMESTEP
0
ITEM: ATOMS
5375 4084
24493 17513
12725 253
26086 9647
3632 21452
21419 12152
ITEM: TIMESTEP
1
ITEM: ATOMS
24115 27760
14333 29840
25595 28911
23582 12239
28421 8252
11281 14168
17682 18470
970 29502
9341 7371
ITEM: TIMESTEP
2
ITEM: ATOMS
9748 30620
33673 23955
13879 33949
16494 10026
23712 30665
13491 5948
6228 73
6569 6172
18739 17923
ITEM: TIMESTEP
3
ITEM: ATOMS
27059 30709
33614 20326
24481 32562
4074 988
31605 25342
1506 22033
1670 22444
11732 7558
22236 24625
21184 16375
9071 15511
ITEM: TIMESTEP
4
ITEM: ATOMS
5375 4084
24493 17513
12725 253
26086 9647
3632 21452
21419 12152