ITEM: TIMESTEP
0
ITEM: ATOMS
27204 397
15600 11775
19637 31671
25684 26737
4235 28923
16773 24624
28485 11907
27684 529
5382 25193
28002 5629
13594 32026
14452 9357
1142 16771
31321 14850
25292 17003
10967 12719
25694 23213
16897 29203
5274 25424
20773 29094
10211 19188
14705 13728
3744 2156
12950 11168
7438 15682
18341 15424
32001 8571
33206 27843
983 1305
3384 28135
29757 10023
1666 11325
32780 19988
22184 10929
12331 11647
25306 25144
27176 29387
20966 31942
19936 7663
8109 2026
1035 18861
1874 22182
28886 8524
14671 286
27992 14693
3394 18140
32518 2199
3221 26078
30994 32567
2331 6461
32141 3207
32406 14042
33613 26769
24246 27671
27898 65
31596 19696
9651 4461
8844 8020
5214 33921
29121 30580
33756 27547
30714 29974
22474 16448
14146 15958
30980 13273
2093 33386
32468 27357
15071 8081
14152 27260
28327 15767
2306 5990
30952 5591
32360 31574
13016 7214
6876 15726
20657 7367
25190 5392
21252 20185
11005 12118
31342 25561
6806 21518
21843 13533
25475 18022
2807 6079
7628 33696
30316 20746
10170 15762
23861 26756
9024 22188
21112 9415
33685 18919
14690 28925
4844 17767
23733 23496
26693 9852
1709 6924
13644 32971
9120 874
13422 15444
17891 22681
32380 17776
11705 3619
21001 12632
31206 2217
4029 12789
10530 20340
7468 11871
26890 746
18049 13252
30752 3944
28483 23064
29266 1922
5626 6611
20424 19572
27803 33852
5639 24916
18126 20848
23346 14263
10209 18014
28897 236
13365 23698
5018 15049
14054 5228
5067 6816
3912 11404
16665 4477
20557 1613
18786 18351
20772 15067
21887 4480
2091 22370
2422 17011
8821 31460
20892 16809
9110 19239
3224 31088
23323 4009
13794 4585
30950 32128
16058 18084
20567 32739
8853 20474
7991 28222
2225 18935
32558 26358
5834 26258
9940 32890
16982 3066
7749 24929
17450 17295
189 614
33712 22041
14162 24157
30064 20025
30913 6769
29531 11195
31201 28443
6054 1732
3412 12513
32611 17070
27500 20921
18220 22573
26394 600
32313 25389
15953 3899
30353 10906
26825 27009
3964 11516
10944 11123
29431 5885
3099 27121
4209 30888
30346 19083
3602 24031
1273 2120
32492 27273
25970 16870
6665 7350
20544 13119
12148 27392
18895 20805
24900 3137
26991 32842
5762 1195
25560 7870
23115 23768
16087 1877
7969 26318
17654 4676
25149 31854
2649 20376
21247 1530
3733 18884
31014 24097
27451 17701
23882 29688
10690 21219
30806 25126
16483 22438
6340 22268
12862 13538
32497 1487
27561 32609
19631 11027
873 11180
9513 13046
26953 11542
24033 4471
9415 29220
7782 9857
12558 26221
20113 24152
1038 4970
7518 18910
2104 10249
14567 14914
18005 8804
17388 11126
2807 13561
6751 19323
25959 24582
29324 10635
28988 30724
5814 28451
12701 31996
11485 23963
21374 25642
29307 20835
11031 7677
14557 3564
29811 17735
16175 28977
27763 27880
21520 224
18786 20193
5349 13704
23204 8103
33961 8816
30807 22167
25970 24034
21052 24896
3263 28578
9999 7681
4157 2607
31889 21472
3465 33605
21623 33412
18720 33885
27755 12272
23650 22498
15872 12301
5620 20592
29684 1362
2405 20458
13262 12227
345 12392
5254 19075
33217 9228
4564 28775
16123 12879
31392 7672
11717 877
14441 19908
6189 10698
721 32354
6804 23679
15749 30465
23362 32389
14075 1708
33443 29005
12708 31307
28462 23929
5744 32745
16614 7339
14113 25822
15769 14600
24776 33800
3509 30456
27276 10539
4267 22812
697 27874
18924 30412
16836 17664
25617 26205
14845 4696
4967 10604
1757 13541
22182 17290
13759 5175
7234 1603
15563 20603
16474 5020
33437 31157
5006 20281
24388 14893
25374 19736
7415 32979
5054 397
20482 31296
8965 30555
2110 1786
30741 29340
4126 17668
16693 18349
19013 9904
5993 26649
21990 7842
29107 7393
10691 11682
22451 17860
26951 4285
32010 27521
11439 32297
9980 7590
1154 3635
14276 22483
23922 1655
24961 28576
32587 3883
10366 19960
6808 4265
9872 24753
28645 18295
25848 12905
14638 2772
7096 12703
18743 26465
4099 24026
16917 4713
10908 11466
3737 9406
31280 8201
7757 22498
24768 30814
12903 32960
6823 19902
4954 10453
22490 21231
32652 5613
493 8602
8547 33390
30754 21820
15544 21595
33356 30378
21437 11254
9858 24286
8842 22518
430 21906
26547 26176
69 120
17446 31445
17746 18995
2945 1512
4971 9446
27840 1514
9205 23079
228 8132
7348 8608
30559 896
12122 13602
20555 33269
22576 31957
32746 20477
930 31057
20968 17236
27557 29442
32221 3487
20260 10844
27072 20391
25528 3739
19493 30849
15990 1332
8342 20827
4146 2446
18367 13396
29681 25223
23427 25641
6476 2772
10045 24568
20992 27241
14753 24963
25090 6721
23920 27442
20705 9851
954 4373
4740 15617
4590 32629
15426 17158
7933 7494
21808 13083
26429 4396
31764 24686
5817 10662
6249 23279
21654 6651
30508 8336
368 32991
24866 28585
7202 3938
380 12982
4613 2006
19 13165
25728 22476
27662 28927
13949 28601
8483 23979
4413 30858
18473 6265
20321 18001
43 12026
10569 4186
15465 11177
26426 14319
2361 10270
13656 595
20987 3919
3300 32463
26953 3587
5358 22552
1725 16101
3403 21161
33293 33137
24609 8290
4802 15278
24336 27197
31319 31848
2395 18712
3724 5657
18404 6692
25353 29347
31109 22441
12624 32492
23578 27268
26539 20391
3821 28926
33093 28523
9049 20234
8821 17602
288 4314
20164 30832
31112 2975
32080 14622
32336 1723
3369 33682
14736 20932
17080 25565
20142 4520
3600 30032
21997 1176
29996 764
400 33122
23224 19157
13117 10623
29212 3794
19596 5829
20755 8947
7966 6602
13562 6911
4011 16822
10995 15673
14931 24099
4409 6607
32358 18180
18094 30351
31936 9535
32065 406
20060 8040
32411 1735
7497 33868
29400 17396
11066 8647
20098 31147
9350 1714
16761 17840
22032 28444
112 5459
19762 17940
9553 17502
25874 13568
12224 25118
31527 29261
3996 30683
1908 16532
11186 12069
29042 3541
16300 27437
25597 8947
1959 30365
28597 22428
8178 23045
756 31811
13474 25875
13359 1963
9154 3950
7254 9682
22424 623
2453 23719
12915 10397
8749 31178
6336 980
26381 23487
13948 8384
281 20383
32132 908
30765 6971
29768 12849
13739 17565
2590 11837
6448 23069
17042 8114
1141 33804
7179 22472
20880 24033
281 9777
22603 8126
28059 20198
2316 25662
17789 10675
12820 2653
11086 23739
10164 13364
8799 27449
31480 21743
28455 24693
7239 7341
26692 576
1283 27907
26957 25660
4443 15710
1667 21434
18368 31891
21381 25633
12565 32212
7490 4200
2607 15602
14184 8528
20380 12394
30044 11633
25408 18685
403 15344
9354 3695
18077 24985
12069 5260
11361 30703
11946 25474
21043 9293
2051 19055
28947 26440
22427 33976
27263 2691
31121 11858
30632 9118
24522 161
466 2028
23910 16443
24292 3824
4347 30040
4336 22996
27806 7657
29 2677
4305 13873
10975 8734
31238 32324
11016 20991
12625 2043
33416 24009
9435 6161
26720 31545
5139 8622
15173 12591
14959 5245
2111 21771
7136 11051
21537 16003
23939 32143
29091 15010
2436 21857
2618 23648
25086 32200
2474 17226
6957 21155
12946 15214
32580 9587
25317 32294
10585 17124
8345 23806
23614 29879
15512 10051
17804 3053
16740 19531
22936 29890
15384 7019
17911 15603
2553 33528
27502 20301
9755 9437
28401 7572
10880 2710
1373 9180
28603 30743
14018 872
13075 5997
22344 28301
9923 32926
11474 29457
25134 28655
6704 25270
19519 16658
20798 14733
4031 30410
7594 9000
21024 381
467 4545
5494 3172
1805 29984
25046 8450
29537 10861
17238 16479
25408 27106
14019 14560
29512 24124
25842 8068
14864 11198
26574 11613
20269 30882
13632 24793
20967 32605
9437 14285
24982 254
27689 27677
30246 7683
9625 730
17065 26855
30390 15176
30763 11340
14941 11227
7025 25761
33972 6014
32123 7392
7303 25599
7801 31431
22336 18474
169 14256
24837 4480
2302 16415
31292 27188
14444 16104
537 13667
24624 2187
13176 27005
15085 14237
4981 15524
13217 19412
21576 21088
27046 17118
27199 14764
22324 767
1652 33649
28211 5189
6542 4172
1966 15705
12115 8431
6468 29205
2074 12129
2633 30780
32462 16738
13849 8587
12975 9568
18524 14282
11907 2095
22516 20510
19482 33544
25139 31758
18751 2337
17018 26080
15370 2293
5180 32080
8882 28175
5666 17692
31056 152
6311 16815
2398 28395
12403 27208
21855 26194
21765 30534
7640 13359
26762 21666
17596 33672
7962 23129
21957 17615
10001 23925
16302 28029
23275 22039
13374 27563
2281 31779
11790 31741
21408 15207
844 22875
32816 17049
1848 2445
28914 26541
9227 14371
667 15616
19032 30878
32493 30083
27819 3631
21437 9463
16974 9609
25407 26082
19738 11189
5789 12092
17162 27331
13543 11785
16426 18711
32644 514
8559 20119
27990 16754
28033 22672
15532 33418
26083 16512
7825 15905
16660 29076
32225 17452
20077 30590
9292 12982
31258 22578
31539 28252
32262 25613
32304 24168
12750 28467
4066 32887
24088 28004
277 28025
24189 2714
15696 5589
14273 13553
30200 14214
1364 29331
4898 20518
320 6159
2470 9430
27106 12309
3647 31959
6726 3489
14 21864
31564 20738
5775 11212
3159 32950
24147 13143
4643 12068
4092 33093
10182 22725
4839 32663
18751 21823
29732 19643
1755 4592
26497 24150
22087 12995
10420 3745
16800 19266
31719 1198
24502 8617
22158 7045
16527 21219
27428 11279
16520 29971
21955 1118
18837 11472
13891 21303
7482 2062
23753 20221
6962 8021
26129 10203
33068 12560
28983 12590
16806 6693
21726 25565
25202 13516
12067 33478
7621 32541
30268 12950
13966 33098
3338 33236
2148 11270
15614 11082
16552 7585
3784 20273
28601 22466
33434 14584
22166 27312
1499 3906
6814 8940
9015 17577
6339 18526
8644 10738
19997 7642
7135 32367
9483 30735
20613 714
8309 29916
12638 20197
13613 32127
32739 24363
26579 5308
19840 11778
18151 33670
18341 4864
17130 9661
8614 21015
28333 21364
9906 15135
4027 18221
1777 1934
25219 31524
1831 4086
21901 8741
12741 23051
28941 15802
7134 31071
32421 6949
7463 21548
10613 31686
21224 30078
4510 19754
19487 21242
15093 13441
22868 8911
31459 25946
2374 19320
23208 32557
28372 26106
23311 31748
31417 28464
20525 5751
11502 12177
7363 22403
23667 13147
3508 1222
16697 14990
2144 28153
27686 30503
24494 4762
29819 32631
25800 10133
722 3616
23824 3455
31857 23084
21089 2143
3660 25209
1744 24330
32951 21157
1 32713
28664 20242
30294 19320
4411 33142
20994 28669
6367 33553
15884 29171
19918 23660
7631 13139
21130 15131
28574 23726
32290 27486
26677 27017
23780 31738
31690 19526
9692 25518
3203 33819
21291 28021
12817 22129
26115 11384
30329 8266
18126 13469
24100 24496
26111 30096
25740 9975
3456 4028
14407 31470
13466 28213
2544 2487
13843 28869
25616 28336
31362 19618
23740 11741
5710 17721
4472 20
22708 29913
29145 15525
17383 31678
29912 33508
27954 31048
835 31044
14233 18135
4365 21714
33614 28022
33414 28283
1791 20097
29909 123
32956 16612
11073 17315
15926 30977
527 27014
25203 28829
7478 31104
32606 9576
28398 8244
828 15896
27431 7104
1801 4545
30102 30687
12353 18739
5466 8091
32187 33199
16717 17180
14559 19479
23206 31490
29239 31841
20619 9403
13156 1640
28483 5233
19176 26128
31274 2211
10688 708
24557 22638
15525 3309
20037 11480
19832 12337
13586 31097
25930 21589
7100 19975
22094 22352
9102 27580
15622 12382
10639 25862
33946 7886
14773 8251
8919 20233
206 19718
3107 27055
5449 24515
26911 7056
2079 5650
18422 24259
28464 7291
10962 27207
24423 21487
2814 4691
17007 3735
27205 12652
22783 27932
8825 27635
15280 28530
18976 9080
5392 15553
12777 14351
31007 16705
20924 27997
3639 11393
10576 10143
20217 15508
20742 19847
1809 16458
14050 4933
15195 13414
9706 19422
24767 10225
33686 27931
21544 9802
3703 32432
9571 17671
32373 32455
9891 25469
33793 1320
23617 31881
31145 21736
16800 2633
8090 12748
21119 24553
25519 16984
11815 14909
14183 32456
20740 7352
20613 26409
6305 1751
27665 29381
12844 11534
25292 10618
12616 27292
14416 31974
11809 33357
22550 11137
31291 1660
10321 9431
5171 8099
1832 9377
20567 15697
19089 33438
26049 21638
29433 2979
7278 1422
5664 29148
26925 20503
1153 16013
29811 10241
5807 1371
8508 10338
15242 23312
16316 16099
33857 33390
23139 26186
10914 5731
4766 1828
25837 10789
12778 20143
31942 31963
30292 10353
28217 31288
12316 30601
16472 13173
1416 13248
29296 18297
14469 19851
30666 7975
2536 10176
28845 12917
15186 15235
29568 15876
2194 16044
7709 28193
5492 8118
30722 33959
31143 19606
30769 1006
18445 4262
103 23012
27931 12573
6665 25286
1312 20445
17978 5516
2851 32665
30777 5598
23685 14993
18007 13575
901 26443
1351 13605
26914 11888
33790 29801
23275 6976
13882 10113
29426 24690
18431 14543
7664 32909
16332 21302
31346 20700
8093 15233
12896 13233
27769 17008
8622 11337
2123 22207
23820 30247
17598 29381
3592 1696
28689 19302
21123 12803
938 12501
32561 851
30406 22506
10138 9650
14991 22476
3229 32971
29959 9259
4693 8524
23777 2364
33587 10399
17183 4466
32794 2803
16773 14773
12666 30444
7212 22098
2229 29027
17507 32671
20333 7067
80 21113
21742 30642
14133 7868
1896 5823
25453 17502
3732 18766
17237 11912
16647 1958
29863 24946
32229 27460
9794 19658
17213 20629
23110 5153
11475 9557
26475 2546
1499 33023
32865 19120
33776 18031
3665 20923
32180 13340
17203 13214
16770 25756
5177 28568
16751 13107
27240 17812
25231 27628
33975 17688
1044 29538
14192 6839
30929 15515
1540 2163
9085 19186
4603 22659
27907 33119
537 27596
1543 10533
31516 991
4930 14425
24513 2575
31726 2474
7398 16653
33837 16048
31354 15394
83 26629
16705 26376
31333 747
5172 22757
15017 20761
6469 25045
26973 15798
14448 32643
19203 5984
17868 11988
8922 1672
24465 30545
11096 24830
5124 18351
15843 17445
14766 28348
8495 13171
3051 16567
12017 32680
25885 21149
12115 6472
29969 10460
28480 30742
2105 29301
2479 9166
32569 627
31932 543
4509 16579
2609 22148
14631 3615
14789 19070
33975 3162
5147 33136
594 12234
18939 22966
14325 1933
2717 9634
1427 32842
22753 11604
25738 9110
16716 26070
1796 27567
17677 25665
31689 23160
3118 1744
14898 13761
32422 31583
22024 9490
14715 30575
3355 26532
29380 5129
18671 7788
32461 5948
27872 21957
10948 1381
1334 3608
29488 18794
20819 8299
17553 19331
28634 5796
11170 10869
14266 24856
17611 11948
33879 13973
12531 26021
9482 14040
9123 18933
28606 25467
10310 2521
1804 29023
24540 27708
20545 6530
24382 5790
32714 20476
1292 27431
3762 33900
32065 7688
32242 9066
33976 18889
20695 25737
72 12549
31266 15723
16395 17055
10040 27808
29980 19487
29370 25389
23391 22220
5023 15621
24810 24088
10652 22023
7889 611
3958 26819
26864 19868
17391 2410
5489 11659
10620 18641
30781 21092
7639 30193
16063 24937
8608 29295
20452 20032
8366 18083
9391 20843
16660 7799
5545 18506
3950 29646
16757 23993
18730 23886
13266 33687
33252 24779
18921 31605
20042 1314
18294 26246
9918 23199
32836 21545
26282 10219
20097 24320
19997 981
32465 19437
16964 15100
25790 20152
18260 358
33724 2591
5187 14192
32331 10395
26102 20147
261 2698
25845 14191
24296 6622
19211 22711
14238 19538
29242 23944
32135 16996
30811 4151
14728 23076
5746 26902
16573 4263
26464 22691
18554 18344
15203 32974
14831 32380
10520 19364
31610 27440
3521 17964
8070 11570
31537 31534
22944 7864
5907 13339
32299 4112
19691 7757
10538 23158
16484 21899
27674 12971
3017 1865
26850 6376
943 21258
23443 16959
7263 1523
11705 23738
31810 18702
26740 17619
21317 26439
32304 20719
20699 18439
5343 28584
7730 17546
12697 31205
10397 11039
26874 30472
6737 24060
23946 10996
92 15995
25162 12072
15295 31669
10697 32685
24860 31545
8854 4952
13402 21080
7104 19756
6901 25745
26249 24943
8211 4436
29610 31319
6258 25973
8032 11009
14588 527
14708 18206
8620 20275
6024 21019
12715 10236
12652 27659
22083 4479
22305 17939
13941 27060
15285 529
16085 28635
25677 15802
24659 16254
14129 28383
16101 30257
16304 14427
27679 11032
20853 8204
9973 5094
28177 635
6551 32861
2200 5162
28347 12118
28296 4169
25433 1134
17491 33492
27919 21180
13165 30909
8053 1947
5921 29153
22779 24632
671 32778
25182 32794
4768 7553
22137 9320
22778 20269
28744 22843
31614 5196
22232 26834
3295 30381
7915 24588
32621 28408
21255 18358
18127 33435
32574 12416
12960 26753
20712 21294
26064 1681
20940 744
18971 1585
24542 16030
1238 6084
16514 2924
24629 9511
20494 7670
17978 19588
26334 3776
15225 12241
24177 4621
27751 24633
16993 26978
4992 5812
16240 32133
15991 4021
15774 823
2056 16480
33318 9756
21129 1334
26232 13251
22912 12446
14242 33430
33566 20866
23815 29680
11481 27539
26513 6741
1527 20186
5059 29171
5430 33244
27303 9139
20632 11929
14343 21772
3820 3218
22855 4452
26904 16548
16959 18531
17634 33509
28854 5079
206 33866
18649 15566
3138 25107
31660 21011
28805 15635
5767 29368
8517 15439
33538 7356
29672 755
29595 30649
27467 32267
25124 24492
3974 1941
16186 9506
880 225
27135 19484
31582 16817
19529 23071
631 18115
14980 7307
23556 12328
23682 25669
5027 6976
32755 18354
4138 28612
15775 8867
9688 27792
6368 21912
16791 17131
9613 1714
15198 932
28097 25306
26979 31371
20379 17095
28158 21913
10942 9503
9224 9020
28200 13598
27122 25859
13375 11564
2498 3331
3127 11006
30296 11540
5201 13627
26400 18139
15118 697
24176 19156
20273 9635
16032 22811
32738 22410
8281 7160
20462 26182
28550 4373
5340 31494
20103 31580
18539 10459
15765 17330
342 10014
22912 3419
32890 9721
24339 21352
20878 9209
24217 27812
18065 15838
32713 23350
4322 4972
9901 8067
31816 23313
15841 14724
22002 16243
25078 11584
5337 17317
27334 15190
16465 26614
6497 32473
25998 10999
3910 29943
25460 16039
16398 27208
29334 11677
8115 10080
3488 14816
1534 5969
26705 7830
33501 29248
8399 20456
18051 12785
9374 1774
1001 4802
25132 6508
8178 19122
13795 15848
10253 2780
24754 22247
25171 14660
613 31108
13520 16476
7760 28844
22175 6579
22699 18952
23950 24027
4135 11640
30993 23269
6575 297
20658 18859
29433 20835
20326 10394
31084 4481
17674 22731
27356 14541
20332 4956
32848 29895
26518 29039
26261 26242
32534 19406
13083 30620
27337 11386
11277 8472
2389 8559
8190 2874
8518 12981
14895 29726
13744 9366
27565 29429
12147 26407
27383 429
22765 7252
16541 20411
33161 26301
1268 1800
27157 21335
11078 24390
12513 16272
22 22813
26003 11251
18001 27798
17720 14532
32480 3122
4421 22056
8730 16472
27867 10356
5254 5211
10985 32593
13406 11684
11995 16617
14720 17504
22209 7521
1566 31320
22634 19890
21701 2953
3823 21573
28362 3424
29948 33019
5232 12676
10969 23366
22119 11359
4407 21992
16862 4394
5941 14678
13321 5797
6962 4216
20685 31680
32605 16352
1336 28216
2025 25204
13087 15425
3228 18826
14447 8028
7654 26831
13668 5510
17391 24227
6168 11069
21097 25077
19875 27008
26005 13959
30256 32946
14161 27549
9601 33818
20351 28072
22697 7786
20833 6985
18167 15449
13744 6116
6386 15695
24235 963
8912 11293
20892 19203
23825 27223
21655 5727
11256 33519
589 18408
29737 13567
10781 8734
18701 19891
13273 12525
9139 14336
20134 2566
5202 20421
18845 3257
23145 28781
31758 5324
33991 20589
6901 29787
32998 20272
12981 16844
23681 23469
10656 4189
11047 28993
16136 29997
1288 20655
608 30211
4732 13393
32476 15007
13027 32857
11815 12731
16759 13224
17236 7198
13469 5226
9596 4253
17419 32301
26197 6350
15523 29356
12323 25354
12845 25884
18744 23326
23236 4898
32056 20703
33670 23198
10632 17911
9343 11209
1364 12288
27951 11846
1375 27708
26887 23464
31189 27327
28804 24736
27629 25402
7970 4833
3594 18516
21297 30723
31985 17606
6821 24511
2260 33540
4039 21789
10493 10195
30009 3656
23766 3307
26359 15915
16949 31611
9945 4955
8118 11476
6373 31840
14256 12275
9121 31504
23833 11470
19846 7146
20853 32825
11312 6620
7706 29317
7250 33714
10655 8023
29862 33420
9235 2625
30594 10570
7753 8495
21734 4614
337 9535
7554 9454
15458 18702
517 22141
23428 27035
19616 28982
11066 6603
7112 25532
24684 7016
33818 16208
33315 13638
24649 5527
4925 22596
29156 21111
27888 5323
27475 9935
14475 8967
7455 13776
21944 7294
12049 33340
3134 31089
12754 33178
787 4143
26322 31986
28271 22225
27397 17371
13499 22901
12023 16622
3592 13914
25888 2791
30813 6724
13891 18264
1848 31325
7984 26682
5205 18825
30490 21297
4316 4036
22642 29034
1413 24026
20962 19044
1191 21138
29622 17096
32093 20296
9524 20470
3002 5717
7580 23229
32244 28510
8795 26359
19163 5126
16218 19183
15325 12129
11571 8544
14626 11894
9507 13675
31682 8847
19499 33508
4631 27216
7568 26218
2237 11714
21395 8609
25685 9051
26459 1166
22713 5180
15662 4126
20554 11927
31471 1443
4501 25626
2273 23228
29652 17644
13497 13936
2848 10403
10801 11527
2484 31968
25193 3493
14477 16232
20856 7540
14750 911
20593 25005
15969 22067
2657 13122
21351 28738
18324 9515
10560 25706
16551 27115
21285 17483
17160 18270
28114 1946
33577 9713
25058 29333
28452 1854
24115 32254
31209 23171
25449 21750
30370 28286
22094 6519
1463 32647
8967 9661
33997 10634
3714 28482
22202 4831
3243 28982
16436 6584
16189 4408
27703 11862
27861 16547
13925 1544
13059 20999
22983 20498
570 23218
7234 10950
20471 15963
12453 18353
22446 3259
11327 17236
10143 25129
10589 22078
12952 20513
15057 15746
24052 10400
27038 19546
16337 12254
24768 1944
22703 360
7336 15029
22164 23256
9317 15880
17341 9364
19662 31876
31951 16449
26444 32702
20108 5057
2917 8602
21056 32576
17939 1617
15595 8998
7075 417
31545 31450
5465 13457
10733 15044
27728 20719
6045 16941
3567 19481
20982 6966
1863 25908
20927 20721
18058 10540
32764 1839
13478 9560
28825 2391
21966 18393
14662 16432
1481 32623
32386 24379
22851 6680
1648 3904
13362 16374
32503 4452
15252 25052
4533 4964
9332 30181
4659 1696
1083 15168
1747 3575
11923 11404
1285 28042
29190 10236
33834 4016
3957 15640
22416 19910
25700 10672
27212 23680
11043 7020
18262 18321
31000 16437
23966 6931
32712 16778
22684 4899
8932 31792
13941 17404
12976 18378
31450 942
23423 27280
8442 16699
23210 23807
10263 9102
4575 21469
29814 11096
21494 26567
29248 15096
24991 21657
13126 18758
11095 31289
19377 15805
10042 16000
5591 3059
33762 12742
20026 7734
13821 9337
11274 8740
10541 27802
523 28663
25192 1812
12913 17611
10560 10745
31991 23117
19869 28091
20608 3
29622 2356
33316 26338
29519 6435
2892 23503
3981 30996
33273 18278
6932 9146
12143 15648
3025 15291
8015 28709
16052 26520
8753 31230
24756 20263
32688 341
14903 11776
30896 2507
1113 11888
32235 17414
1977 733
16168 32133
19700 7127
25645 8130
26441 3095
19211 19363
4235 33175
15224 22188
12629 32974
30347 4020
20407 33302
15119 5698
25119 12603
28858 7669
27459 20370
27352 11693
4075 659
2288 12601
5531 27285
26456 22286
18190 28901
3188 28400
1982 27586
16042 33776
5136 28760
1073 5171
30077 9640
27752 7914
2858 8448
12387 14387
26809 3196
3279 23084
24360 6136
9495 22143
21832 7344
26751 8126
30792 27927
19038 15724
1119 17601
16937 19382
24137 24797
4425 12332
13641 19890
6302 7856
1708 24036
29694 19546
16158 29619
6022 7989
20470 13073
7761 346
5100 5198
24662 2679
19163 19522
3963 18283
8658 3302
13240 7360
196 18543
439 26982
12655 30231
33111 31752
3690 9786
271 21293
13975 32267
17599 10126
33272 22561
17331 20367
21533 14289
13089 26139
21052 32361
29745 2848
18778 14133
10156 31620
6565 27986
23085 27475
4068 3565
14933 5126
8582 23399
30987 31554
5991 792
12655 30026
5313 20796
24783 4177
12127 22462
9635 13600
29085 29200
22755 4240
9435 17492
23481 27749
3904 19498
33649 22824
27820 31095
7069 12655
29557 16478
25140 23114
26323 16798
24986 5405
10919 28263
32811 21317
27046 3705
19217 1625
7923 20060
25622 15615
5930 15846
4211 31959
7562 9148
7414 16760
18378 17624
4610 26613
844 6131
25584 22876
5870 17728
8276 1867
ITEM: TIMESTEP
5000
ITEM: ATOMS
21053 26821
13291 3439
14484 10726
24223 8906
24115 27760
14333 29840
25595 28911
23582 12239
28421 8252
11281 14168
17682 18470
970 29502
9341 7371
579 22506
31469 14964
7232 29288
25607 30043
23937 27186
21152 15257
33697 6360
25759 4816
23580 17176
26033 16242
23629 7375
13142 31197
9748 30620
33673 23955
13879 33949
16494 10026
23712 30665
13491 5948
6228 73
6569 6172
18739 17923
5132 23782
33723 27893
22045 14817
31543 25563
25777 10645
26661 25005
20658 15507
26181 32167
27059 30709
33614 20326
24481 32562
4074 988
31605 25342
1506 22033
1670 22444
11732 7558
22236 24625
21184 16375
9071 15511
21971 26988
19902 26586
17306 17787
3835 7714
12680 13774
15075 31950
6690 4589
540 21481
13576 22472
15463 11500
27486 22660
8804 28384
7609 31455
4517 15182
21429 23456
33195 28133
18882 32576
14300 9430
26176 23407
31399 4639
2639 13989
12654 27171
4601 4998
2545 26099
5083 12545
21308 25627
17934 23205
678 25403
13204 11089
10138 25920
9198 9526
6179 19631
12795 2458
25377 11789
2346 7772
8424 21422
15568 19680
6951 19272
29205 7190
28262 10307
10537 2427
3864 9663
14516 30859
32480 2194
5579 9552
30944 15933
12863 11292
16701 6649
19455 14256
8638 21523
33565 32391
11684 4258
26350 16066
17859 20977
22459 32592
3837 8189
31301 21657
23792 8028
2101 32135
3542 22088
24626 1394
18683 7847
635 11494
10012 7944
692 13156
24714 2620
14813 23410
31677 8479
25838 33871
2117 2
18671 10839
33980 27798
5539 12543
13368 11270
32165 2254
16956 19249
27915 24953
23502 6995
3383 16825
32419 14560
477 19082
23671 780
29406 33907
13401 18266
20466 25661
8354 18670
19573 12833
198 26785
6312 32963
16787 30161
2808 25381
19190 3666
30428 29145
20414 9237
29063 30935
32760 22548
12622 8279
21593 19415
7988 16876
32506 30774
11552 6702
25949 20523
11920 11201
3310 10658
21863 13079
32805 9937
18178 4015
18360 3918
11112 24632
9310 26450
23999 18342
798 280
14060 13983
27333 33409
8178 17491
31846 15303
29388 1126
20491 5260
29077 25292
28138 3022
628 28767
10372 4857
20390 3488
151 25914
32195 26840
1890 5852
15411 29897
31561 20769
21977 27398
31166 31053
9645 17115
9519 5938
16536 28395
8576 1844
33960 26980
5405 13017
2676 26961
15873 12799
6377 20204
33685 10825
3106 11613
28976 871
13158 17748
2956 12930
15131 20815
5049 8577
24297 12808
14491 25578
13578 11758
13663 31592
6317 17359
28059 14870
28217 9343
13971 26053
7007 25687
12103 4272
21496 32125
11305 16681
5437 7147
19677 27039
29254 9039
19002 12607
13194 14607
30413 6980
23589 9606
26348 365
17240 4831
27976 12409
25609 22669
23579 10033
25355 3189
737 22834
14745 23114
33908 29621
5916 24818
4031 2893
20157 29417
9796 23581
25763 26514
12073 11539
4941 27877
6508 12629
20972 28202
24264 28390
13368 19793
19312 5365
28083 1883
1287 25219
15994 18632
7954 2463
4599 15230
4358 23215
2468 3954
14955 23085
25370 3159
23698 13660
13319 64
1507 8613
23582 32003
26766 32674
17784 12493
27955 32006
8073 4428
27710 32408
8526 3820
18298 42
13777 4129
19782 21066
19471 30030
5764 3684
28609 23569
14830 10881
1110 28747
19572 11697
22226 5983
20000 33681
17039 13237
33355 40
12418 11068
584 2804
10457 10186
9326 14028
3936 22097
27491 30385
14114 24833
25235 22550
32957 27555
23808 25353
28830 2601
14643 19597
29516 5776
10753 20469
2320 15583
8794 9679
23426 14751
12010 21771
24591 5270
26018 631
31222 17137
17057 21944
7586 25822
8251 27111
6369 7220
23420 28581
6644 23999
19222 11421
14127 9979
357 1493
2256 6557
24724 32175
13564 32889
25337 7250
10341 1459
11099 15232
7224 13397
32932 15956
33410 19498
27505 6155
23603 28469
9462 9308
4138 7617
20670 19364
19328 13573
6384 18930
9778 8035
12590 8876
33077 14974
12951 32092
16238 17542
12668 11355
5369 25986
5280 21753
14295 14072
7496 10358
13765 17547
8978 8303
26791 32210
8482 21320
27283 25281
9014 17106
28522 9046
22107 15786
20353 6243
24666 20958
28974 16355
29706 28316
15279 2746
26393 21641
21667 28685
21013 22267
8364 28635
29540 868
20684 18231
13571 29067
15980 19635
33660 22361
6492 24474
17936 25212
23092 12602
18756 523
22089 6221
5705 13351
20092 33059
26739 24890
1500 6285
28395 1712
29996 24216
10912 12734
23918 32259
7480 16211
14639 26383
27780 30425
908 15283
33809 25144
21394 29257
3115 21528
7428 31193
29452 13584
21637 23967
8242 29424
33525 16123
335 22791
20696 4645
4922 25314
21570 24331
16898 32514
25983 9193
14547 6777
12543 32548
21345 16896
30238 12723
6129 30856
9186 3914
31959 21771
20093 27908
7546 24702
18147 16492
27460 38
26597 600
7142 3171
10748 31731
10808 26573
15457 32406
21405 30970
16776 4306
17733 25434
7886 17468
27788 27455
17303 25509
31008 16828
18682 3301
28863 4312
3337 14132
7567 5119
5527 7189
17240 1670
16846 847
22236 25353
24137 32376
13478 10418
32620 32449
31984 32072
4612 18184
15326 18978
22872 3630
3240 27542
12254 32390
22454 29395
26523 30598
8819 12823
31506 18014
23604 27902
13902 6098
9090 1832
4459 3221
4354 28853
30094 3012
7462 31503
30532 27628
12525 8164
13592 24473
16709 17071
5502 1820
2689 834
18925 9527
6597 29458
426 6424
1598 25903
33679 15265
26335 27391
17178 30208
32054 25766
25809 21232
23101 11203
8004 12202
28012 23466
22763 18825
15787 8857
25182 1417
21989 11578
30772 30747
29833 3844
5090 11304
26778 22686
14373 8239
26518 24545
19739 3789
29796 13593
26092 5160
16310 25752
15590 648
4158 19527
20694 16211
16765 23690
6194 7459
3623 13966
18610 14101
25122 33889
26736 49
13036 24558
32405 545
588 3364
11746 26688
18657 24226
32880 26401
26696 4242
25295 19881
25097 10271
15867 23418
9584 20644
16733 20861
2393 29058
31614 6250
14084 6573
4150 6551
26073 6724
25250 32507
8949 20459
9379 15518
30082 5623
22595 22591
5572 2709
27843 641
12864 9831
22880 30291
31783 32812
31541 19611
18656 29803
13273 10942
21796 3996
21032 1790
14131 31299
14528 240
8804 28025
12562 20265
19929 20681
8008 166
19473 4484
29814 24884
32071 20914
20969 28146
2343 19286
1036 16481
7281 6908
21385 4372
16822 1777
26012 30250
16655 31775
24595 24774
4558 4628
24834 10311
12732 22222
14260 26057
9809 15333
26235 13687
19297 15717
32008 18986
4804 5670
26790 18275
7822 19609
9665 22849
11021 23394
29732 25648
22690 17197
4704 2750
13798 29790
21864 8443
18317 12937
21177 20492
280 12506
10440 33484
4772 27219
9923 28160
18752 32272
2185 3061
28109 25735
18933 27545
958 9105
24357 4130
2126 10784
1706 1263
1168 22349
26424 31865
4978 24495
15021 8613
5627 3881
3023 23993
6419 9728
9453 10872
33058 12231
5863 17180
33872 17370
6650 2367
10268 9412
6611 23622
8472 14509
10101 4267
2289 30947
20358 22373
22669 5155
5139 3190
29293 9012
29844 22705
22434 14273
25275 18965
5820 33681
18853 14107
22605 18517
28131 8568
3500 30157
13602 25807
12933 24231
14278 7831
31325 13237
6198 243
14276 17241
9920 25924
14675 19328
13469 24248
27045 11017
28239 13916
2066 22321
1655 16166
9110 18956
7876 14840
2449 27569
10405 22721
28711 17490
19616 29798
3079 25239
8235 8344
14905 17830
22823 26786
16225 11185
25772 16546
20688 12285
2319 3969
17353 4714
8993 28209
17169 22803
12353 20946
11024 1540
28434 13888
14404 5635
3319 2861
2500 2797
19242 18535
33730 12702
29020 4885
33306 25355
11990 16195
15367 8016
22911 1608
28277 3073
13014 7664
21953 33263
26063 18859
30956 10490
28747 26161
5598 30589
33759 4288
24712 1435
17591 15603
23842 6691
17283 22785
14738 13602
31695 17360
30782 26774
10545 18468
29833 15707